
     Program PWSCF v.5.2.0 starts on 29Feb2016 at 18: 9:40 

     This program is part of the open-source Quantum ESPRESSO suite
     for quantum simulation of materials; please cite
         "P. Giannozzi et al., J. Phys.:Condens. Matter 21 395502 (2009);
          URL http://www.quantum-espresso.org", 
     in publications or presentations arising from this work. More details at
     http://www.quantum-espresso.org/quote

     Parallel version (MPI), running on     1 processors
     Waiting for input...
     Reading input from standard input
     Message from routine read_cards :
     DEPRECATED: no units specified in CELL_PARAMETERS card

     Current dimensions of program PWSCF are:
     Max number of different atomic species (ntypx) = 10
     Max number of k-points (npk) =  40000
     Max angular momentum in pseudopotentials (lmaxx) =  3

     gamma-point specific algorithms are used

     Subspace diagonalization in iterative solution of the eigenvalue problem:
     a serial algorithm will be used

 
     G-vector sticks info
     --------------------
     sticks:   dense  smooth     PW     G-vecs:    dense   smooth      PW
     Sum        3397    3397    853               149781   149781   18805
     Tot        1699    1699    427
 


     bravais-lattice index     =            0
     lattice parameter (alat)  =       1.8900  a.u.
     unit-cell volume          =    6751.2690 (a.u.)^3
     number of atoms/cell      =            6
     number of atomic types    =            2
     number of electrons       =        12.00
     number of Kohn-Sham states=           20
     kinetic-energy cutoff     =      30.0000  Ry
     charge density cutoff     =     120.0000  Ry
     convergence threshold     =      1.0E-05
     mixing beta               =       0.4500
     number of iterations used =            8  plain     mixing
     Exchange-correlation      = PBE ( 1  4  3  4 0 0)
     nstep                     =            1


     celldm(1)=   1.890000  celldm(2)=   0.000000  celldm(3)=   0.000000
     celldm(4)=   0.000000  celldm(5)=   0.000000  celldm(6)=   0.000000

     crystal axes: (cart. coord. in units of alat)
               a(1) = (  10.000000   0.000000   0.000000 )  
               a(2) = (   0.000000  10.000000   0.000000 )  
               a(3) = (   0.000000   0.000000  10.000000 )  

     reciprocal axes: (cart. coord. in units 2 pi/alat)
               b(1) = (  0.100000  0.000000  0.000000 )  
               b(2) = (  0.000000  0.100000  0.000000 )  
               b(3) = (  0.000000  0.000000  0.100000 )  


     PseudoPot. # 1 for C  read from file:
     /projects/academic/alexeyak/Software/PSEUDO/SSSP/SSSP_acc_PBE/C_pbe_v1.2.uspp.F.UPF
     MD5 check sum: d1aef80898a10debaa0f26306b886e00
     Pseudo is Ultrasoft + core correction, Zval =  4.0
     Generated by new atomic code, or converted to UPF format
     Using radial grid of  721 points,  4 beta functions with: 
                l(1) =   0
                l(2) =   0
                l(3) =   1
                l(4) =   1
     Q(r) pseudized with  8 coefficients,  rinner =    1.100   1.100   1.100


     PseudoPot. # 2 for  H read from file:
     /projects/academic/alexeyak/Software/PSEUDO/SSSP/SSSP_acc_PBE/H.pbe-rrkjus_psl.0.1.UPF
     MD5 check sum: 36633979392af7100e6f6632747262d3
     Pseudo is Ultrasoft, Zval =  1.0
     Generated using "atomic" code by A. Dal Corso  v.5.0.99 svn rev. 10869
     Using radial grid of  929 points,  2 beta functions with: 
                l(1) =   0
                l(2) =   0
     Q(r) pseudized with 0 coefficients 


     atomic species   valence    mass     pseudopotential
        C              4.00    12.01000     C ( 1.00)
        H              1.00     1.00800      H( 1.00)

     No symmetry found



   Cartesian axes

     site n.     atom                  positions (alat units)
         1           C   tau(   1) = (  -5.0467200   2.3176300   0.0178200  )
         2           C   tau(   2) = (  -3.7154800   2.3089400  -0.0058700  )
         3           H   tau(   3) = (  -5.6064200   1.5407300  -0.4925500  )
         4           H   tau(   4) = (  -5.5777200   3.1016400   0.5476100  )
         5           H   tau(   5) = (  -3.1844800   1.5249300  -0.5356500  )
         6           H   tau(   6) = (  -3.1557900   3.0858400   0.5045100  )

     number of k points=     1  gaussian smearing, width (Ry)=  0.0050
                       cart. coord. in units 2pi/alat
        k(    1) = (   0.0000000   0.0000000   0.0000000), wk =   2.0000000

     Dense  grid:    74891 G-vectors     FFT dimensions: (  72,  72,  72)

     Largest allocated arrays     est. size (Mb)     dimensions
        Kohn-Sham Wavefunctions         2.87 Mb     (    9403,   20)
        NL pseudopotentials             3.44 Mb     (    9403,   24)
        Each V/rho on FFT grid          5.70 Mb     (  373248)
        Each G-vector array             0.57 Mb     (   74891)
        G-vector shells                 0.01 Mb     (     907)
     Largest temporary arrays     est. size (Mb)     dimensions
        Auxiliary wavefunctions         5.74 Mb     (    9403,   80)
        Each subspace H/S matrix        0.05 Mb     (      80,   80)
        Each <psi_i|beta_j> matrix      0.00 Mb     (      24,   20)
        Arrays for rho mixing          45.56 Mb     (  373248,    8)

     Initial potential from superposition of free atoms
     Check: negative starting charge=   -0.008647

     starting charge   11.99988, renormalised to   12.00000

     negative rho (up, down):  8.647E-03 0.000E+00
     Starting wfc are   12 randomized atomic wfcs +    8 random wfc

     total cpu time spent up to now is        0.5 secs

     per-process dynamical memory:    82.3 Mb

     Self-consistent Calculation

     iteration #  1     ecut=    30.00 Ry     beta=0.45
     Davidson diagonalization with overlap
     ethr =  1.00E-02,  avg # of iterations = 12.0

     negative rho (up, down):  1.353E-02 0.000E+00

     total cpu time spent up to now is        1.3 secs

     total energy              =     -27.53361699 Ry
     Harris-Foulkes estimate   =     -27.94086043 Ry
     estimated scf accuracy    <       0.78976505 Ry

     iteration #  2     ecut=    30.00 Ry     beta=0.45
     Davidson diagonalization with overlap
     ethr =  6.58E-03,  avg # of iterations =  2.0

     negative rho (up, down):  1.758E-02 0.000E+00

     total cpu time spent up to now is        1.7 secs

     total energy              =     -27.63704219 Ry
     Harris-Foulkes estimate   =     -27.65441149 Ry
     estimated scf accuracy    <       0.05221988 Ry

     iteration #  3     ecut=    30.00 Ry     beta=0.45
     Davidson diagonalization with overlap
     ethr =  4.35E-04,  avg # of iterations =  4.0

     negative rho (up, down):  2.229E-02 0.000E+00

     total cpu time spent up to now is        2.2 secs

     total energy              =     -27.63368805 Ry
     Harris-Foulkes estimate   =     -27.63875212 Ry
     estimated scf accuracy    <       0.01153680 Ry

     iteration #  4     ecut=    30.00 Ry     beta=0.45
     Davidson diagonalization with overlap
     ethr =  9.61E-05,  avg # of iterations =  2.0

     negative rho (up, down):  2.200E-02 0.000E+00

     total cpu time spent up to now is        2.7 secs

     total energy              =     -27.63473510 Ry
     Harris-Foulkes estimate   =     -27.63484662 Ry
     estimated scf accuracy    <       0.00019842 Ry

     iteration #  5     ecut=    30.00 Ry     beta=0.45
     Davidson diagonalization with overlap
     ethr =  1.65E-06,  avg # of iterations =  7.0

     negative rho (up, down):  2.227E-02 0.000E+00

     total cpu time spent up to now is        3.3 secs

     total energy              =     -27.63477109 Ry
     Harris-Foulkes estimate   =     -27.63477315 Ry
     estimated scf accuracy    <       0.00002263 Ry

     iteration #  6     ecut=    30.00 Ry     beta=0.45
     Davidson diagonalization with overlap
     ethr =  1.89E-07,  avg # of iterations =  1.0

     negative rho (up, down):  2.226E-02 0.000E+00

     total cpu time spent up to now is        3.7 secs

     End of self-consistent calculation

          k = 0.0000 0.0000 0.0000 (  9403 PWs)   bands (ev):

   -18.5771 -13.8981 -11.3502  -9.7748  -8.3299  -6.5202  -0.8180  -0.7777
     0.4528   0.5385   0.6190   0.7148   0.7801   0.8326   1.7325   1.9765
     1.9884   1.9898   2.1301   2.1798

     the Fermi energy is    -2.9414 ev

!    total energy              =     -27.63477147 Ry
     Harris-Foulkes estimate   =     -27.63477229 Ry
     estimated scf accuracy    <       0.00000200 Ry

     convergence has been achieved in   6 iterations

     Forces acting on atoms (Ry/au):


     negative rho (up, down):  2.226E-02 0.000E+00
     atom    1 type  1   force =     0.01190123   -0.00005617   -0.00021897
     atom    2 type  1   force =    -0.01194677    0.00011460    0.00020869
     atom    3 type  2   force =    -0.01146649   -0.00274793   -0.00170800
     atom    4 type  2   force =    -0.01140395    0.00285526    0.00217385
     atom    5 type  2   force =     0.01144001   -0.00297050   -0.00220468
     atom    6 type  2   force =     0.01147597    0.00280474    0.00174910

     Total force =     0.029267     Total SCF correction =     0.000842

     Molecular Dynamics Calculation

     Starting temperature  =   300.00 K

     temperature is controlled by Andersen thermostat
     Collision frequency = 1.0000/timestep
     mass C                =    12.01
     mass H                =     1.01
     Time step             =    20.67 a.u.,  1.0000 femto-seconds

     Entering Dynamics:    iteration =     1
                           time      =   0.0010 pico-seconds


     Andersen thermostat:    6 collisions

ATOMIC_POSITIONS (alat)
C       -5.047672299   2.316752908   0.019926653
C       -3.716672741   2.308901920  -0.005946840
H       -5.574229161   1.533265565  -0.492809801
H       -5.589894911   3.082426014   0.522642902
H       -3.184887091   1.562970563  -0.555289394
H       -3.149841374   3.085381838   0.525191720


     kinetic energy (Ekin) =     0.01804486 Ry
     temperature           =   379.87397646 K 
     Ekin + Etot (const)   =   -27.61672661 Ry

     Linear momentum :    0.0000000000    0.0000000000    0.0000000000
     Check: negative starting charge=   -0.008647
     NEW-OLD atomic charge density approx. for the potential
     Check: negative starting charge=   -0.008615

     negative rho (up, down):  2.185E-02 0.000E+00

     total cpu time spent up to now is        4.4 secs

     per-process dynamical memory:   123.1 Mb

     Self-consistent Calculation

     iteration #  1     ecut=    30.00 Ry     beta=0.45
     Davidson diagonalization with overlap
     ethr =  1.00E-06,  avg # of iterations =  6.0

     negative rho (up, down):  2.205E-02 0.000E+00

     total cpu time spent up to now is        5.0 secs

     total energy              =     -27.63250135 Ry
     Harris-Foulkes estimate   =     -27.63279582 Ry
     estimated scf accuracy    <       0.00097776 Ry

     iteration #  2     ecut=    30.00 Ry     beta=0.45
     Davidson diagonalization with overlap
     ethr =  8.15E-06,  avg # of iterations =  1.0

     negative rho (up, down):  2.220E-02 0.000E+00

     total cpu time spent up to now is        5.4 secs

     total energy              =     -27.63258228 Ry
     Harris-Foulkes estimate   =     -27.63263017 Ry
     estimated scf accuracy    <       0.00021652 Ry

     iteration #  3     ecut=    30.00 Ry     beta=0.45
     Davidson diagonalization with overlap
     ethr =  1.80E-06,  avg # of iterations =  1.0

     negative rho (up, down):  2.240E-02 0.000E+00

     total cpu time spent up to now is        5.8 secs

     total energy              =     -27.63260504 Ry
     Harris-Foulkes estimate   =     -27.63261099 Ry
     estimated scf accuracy    <       0.00005102 Ry

     iteration #  4     ecut=    30.00 Ry     beta=0.45
     Davidson diagonalization with overlap
     ethr =  4.25E-07,  avg # of iterations =  1.0

     negative rho (up, down):  2.248E-02 0.000E+00

     total cpu time spent up to now is        6.2 secs

     End of self-consistent calculation

          k = 0.0000 0.0000 0.0000 (  9403 PWs)   bands (ev):

   -18.6055 -13.9694 -11.3936  -9.8097  -8.3646  -6.5158  -0.8220  -0.7761
     0.4618   0.5447   0.6255   0.7157   0.7802   0.8338   1.7421   1.9790
     1.9943   2.0006   2.1325   2.1821

     the Fermi energy is    -2.9467 ev

!    total energy              =     -27.63260913 Ry
     Harris-Foulkes estimate   =     -27.63260857 Ry
     estimated scf accuracy    <       0.00000218 Ry

     convergence has been achieved in   4 iterations

     Forces acting on atoms (Ry/au):


     negative rho (up, down):  2.248E-02 0.000E+00
     atom    1 type  1   force =     0.03329105   -0.01514207   -0.01155385
     atom    2 type  1   force =    -0.01121169    0.03405000    0.02168591
     atom    3 type  2   force =    -0.02215628   -0.01184630   -0.00997403
     atom    4 type  2   force =    -0.02356835    0.02180545    0.01860291
     atom    5 type  2   force =     0.02132362   -0.02163725   -0.01162573
     atom    6 type  2   force =     0.00232165   -0.00722983   -0.00713521

     Total force =     0.080627     Total SCF correction =     0.000763

     The maximum number of steps has been reached.

     End of molecular dynamics calculation

     diffusion coefficients :
     atom     1   D =       0.00000010 cm^2/s
     atom     2   D =       0.00000002 cm^2/s
     atom     3   D =       0.00001821 cm^2/s
     atom     4   D =       0.00001902 cm^2/s
     atom     5   D =       0.00003056 cm^2/s
     atom     6   D =       0.00000772 cm^2/s

     < D > =       0.00001261 cm^2/s

     Entering Dynamics:    iteration =     2
                           time      =   0.0020 pico-seconds


     Andersen thermostat:    6 collisions

ATOMIC_POSITIONS (alat)
C       -5.044026991   2.315556222   0.016558430
C       -3.720490128   2.312431773  -0.004223147
H       -5.564777829   1.515857447  -0.481108040
H       -5.582654007   3.122804640   0.527879672
H       -3.198033869   1.531346893  -0.555138498
H       -3.151336560   3.066236060   0.527696334


     kinetic energy (Ekin) =     0.01628344 Ry
     temperature           =   342.79322712 K 
     Ekin + Etot (const)   =   -27.61632569 Ry
     Message from routine dynamics:
     Total linear momentum <> 0

     Linear momentum :    0.1850114123   -2.3583632962   -1.0228547388

     Writing output data file x.save
 
     init_run     :      0.37s CPU      0.41s WALL (       1 calls)
     electrons    :      4.79s CPU      5.12s WALL (       2 calls)
     update_pot   :      0.23s CPU      0.27s WALL (       1 calls)
     forces       :      0.48s CPU      0.50s WALL (       2 calls)

     Called by init_run:
     wfcinit      :      0.07s CPU      0.07s WALL (       1 calls)
     potinit      :      0.16s CPU      0.18s WALL (       1 calls)

     Called by electrons:
     c_bands      :      2.16s CPU      2.20s WALL (      10 calls)
     sum_band     :      0.80s CPU      0.89s WALL (      10 calls)
     v_of_rho     :      1.66s CPU      1.70s WALL (      12 calls)
     newd         :      0.33s CPU      0.43s WALL (      12 calls)
     mix_rho      :      0.10s CPU      0.10s WALL (      10 calls)

     Called by c_bands:
     init_us_2    :      0.04s CPU      0.05s WALL (      21 calls)
     regterg      :      2.09s CPU      2.13s WALL (      10 calls)

     Called by sum_band:
     sum_band:bec :      0.00s CPU      0.00s WALL (      10 calls)
     addusdens    :      0.38s CPU      0.46s WALL (      10 calls)

     Called by *egterg:
     h_psi        :      1.79s CPU      1.79s WALL (      48 calls)
     s_psi        :      0.02s CPU      0.02s WALL (      48 calls)
     g_psi        :      0.02s CPU      0.02s WALL (      37 calls)
     rdiaghg      :      0.03s CPU      0.03s WALL (      46 calls)

     Called by h_psi:
     add_vuspsi   :      0.03s CPU      0.03s WALL (      48 calls)

     General routines
     calbec       :      0.05s CPU      0.05s WALL (      66 calls)
     fft          :      0.64s CPU      0.66s WALL (     177 calls)
     fftw         :      1.70s CPU      1.70s WALL (     718 calls)
     davcio       :      0.00s CPU      0.00s WALL (       1 calls)
 
     Parallel routines
     fft_scatter  :      0.35s CPU      0.36s WALL (     895 calls)
 
     PWSCF        :     5.98s CPU         6.73s WALL

 
   This run was terminated on:  18: 9:46  29Feb2016            

=------------------------------------------------------------------------------=
   JOB DONE.
=------------------------------------------------------------------------------=
